<?xml version="1.0" encoding="UTF-8"?>

<!-- generated on 2024-09-24 13:34:57 by Eclipse SUMO GUI Version 1.20.0
<configuration xmlns:xsi="http://www.w3.org/2001/XMLSchema-instance" xsi:noNamespaceSchemaLocation="http://sumo.dlr.de/xsd/sumoConfiguration.xsd">

    <input>
        <net-file value="D:\PBL-2_FInal\map.net.xml"/>
        <route-files value="D:\PBL-2_FInal\generated_routes.rou.xml"/>
    </input>

    <output>
        <fcd-output value="D:\PBL-2_FInal\fcd.xml"/>
    </output>

    <time>
        <begin value="0"/>
        <end value="1000"/>
    </time>

</configuration>
-->

<fcd-export xmlns:xsi="http://www.w3.org/2001/XMLSchema-instance" xsi:noNamespaceSchemaLocation="http://sumo.dlr.de/xsd/fcd_file.xsd">
</fcd-export>
